<?xml version="1.0" encoding="UTF-8"?>

<!-- generated on 2025-11-20 20:45:59 by Eclipse SUMO GUI Version 1.24.0
<sumoConfiguration xmlns:xsi="http://www.w3.org/2001/XMLSchema-instance" xsi:noNamespaceSchemaLocation="http://sumo.dlr.de/xsd/sumoConfiguration.xsd">

    <input>
        <net-file value="/home/yarl/Desktop/sumo/tools/2025-11-19-05-32-17/osm.net.xml.gz"/>
        <route-files value="/home/yarl/Desktop/sumo/tools/2025-11-19-05-32-17/osm.bus.trips.xml,/home/yarl/Desktop/sumo/tools/2025-11-19-05-32-17/osm.motorcycle.trips.xml,/home/yarl/Desktop/sumo/tools/2025-11-19-05-32-17/osm.passenger.trips.xml,/home/yarl/Desktop/sumo/tools/2025-11-19-05-32-17/osm.tram.trips.xml,/home/yarl/Desktop/sumo/tools/2025-11-19-05-32-17/osm.truck.trips.xml"/>
        <additional-files value="/home/yarl/Desktop/sumo/tools/2025-11-19-05-32-17/osm.poly.xml.gz,/home/yarl/Desktop/sumo/tools/2025-11-19-05-32-17/output.add.xml"/>
    </input>

    <output>
        <tripinfo-output value="/home/yarl/Desktop/sumo/tools/2025-11-19-05-32-17/tripinfos.xml"/>
        <statistic-output value="/home/yarl/Desktop/sumo/tools/2025-11-19-05-32-17/stats.xml"/>
    </output>

    <processing>
        <ignore-route-errors value="true"/>
        <tls.actuated.jam-threshold value="30"/>
    </processing>

    <routing>
        <device.rerouting.adaptation-steps value="18"/>
        <device.rerouting.adaptation-interval value="10"/>
    </routing>

    <report>
        <verbose value="true"/>
        <duration-log.statistics value="true"/>
        <no-step-log value="true"/>
    </report>

    <gui_only>
        <gui-settings-file value="/home/yarl/Desktop/sumo/tools/2025-11-19-05-32-17/osm.view.xml"/>
    </gui_only>

</sumoConfiguration>
-->

<tripinfos xmlns:xsi="http://www.w3.org/2001/XMLSchema-instance" xsi:noNamespaceSchemaLocation="http://sumo.dlr.de/xsd/tripinfo_file.xsd">
    <tripinfo id="tram0" depart="0.00" departLane="1307961584#0_0" departPos="22.10" departSpeed="13.89" departDelay="0.00" arrival="12.00" arrivalLane="1307961584#1_0" arrivalPos="115.57" arrivalSpeed="13.89" duration="12.00" routeLength="157.15" waitingTime="0.00" waitingCount="0" stopTime="0.00" timeLoss="0.00" rerouteNo="0" devices="tripinfo_tram0 routing_tram0" vType="tram_tram" speedFactor="1.00" vaporized=""/>
    <tripinfo id="motorcycle5" depart="12.00" departLane="23979404#8_1" departPos="2.30" departSpeed="0.00" departDelay="0.47" arrival="32.00" arrivalLane="-1427251646#1_0" arrivalPos="0.50" arrivalSpeed="2.90" duration="20.00" routeLength="226.64" waitingTime="0.00" waitingCount="0" stopTime="0.00" timeLoss="6.66" rerouteNo="1" devices="tripinfo_motorcycle5 routing_motorcycle5" vType="motorcycle_motorcycle" speedFactor="0.86" vaporized=""/>
    <tripinfo id="veh57" depart="18.00" departLane="-690357030_0" departPos="5.10" departSpeed="0.00" departDelay="0.46" arrival="60.00" arrivalLane="1320158852#4_1" arrivalPos="12.90" arrivalSpeed="14.32" duration="42.00" routeLength="451.25" waitingTime="0.00" waitingCount="0" stopTime="0.00" timeLoss="8.65" rerouteNo="1" devices="tripinfo_veh57 routing_veh57" vType="veh_passenger" speedFactor="1.00" vaporized=""/>
    <tripinfo id="veh32" depart="10.00" departLane="1334817302#1_0" departPos="4.76" departSpeed="0.00" departDelay="0.15" arrival="61.00" arrivalLane="-1334817310#3_1" arrivalPos="41.71" arrivalSpeed="22.13" duration="51.00" routeLength="749.23" waitingTime="8.00" waitingCount="1" stopTime="0.00" timeLoss="23.72" rerouteNo="1" devices="tripinfo_veh32 routing_veh32" vType="veh_passenger" speedFactor="1.03" vaporized=""/>
    <tripinfo id="motorcycle6" depart="14.00" departLane="911229691#1_0" departPos="2.30" departSpeed="0.00" departDelay="0.17" arrival="68.00" arrivalLane="1433947190#3_0" arrivalPos="115.43" arrivalSpeed="22.55" duration="54.00" routeLength="670.94" waitingTime="11.00" waitingCount="2" stopTime="0.00" timeLoss="25.69" rerouteNo="1" devices="tripinfo_motorcycle6 routing_motorcycle6" vType="motorcycle_motorcycle" speedFactor="1.09" vaporized=""/>
    <tripinfo id="motorcycle14" depart="33.00" departLane="1222163960#2_0" departPos="2.30" departSpeed="0.00" departDelay="0.72" arrival="73.00" arrivalLane="-1222163960#2_0" arrivalPos="6.60" arrivalSpeed="19.02" duration="40.00" routeLength="249.90" waitingTime="19.00" waitingCount="1" stopTime="0.00" timeLoss="26.03" rerouteNo="1" devices="tripinfo_motorcycle14 routing_motorcycle14" vType="motorcycle_motorcycle" speedFactor="0.94" vaporized=""/>
    <tripinfo id="motorcycle36" depart="83.00" departLane="691143808#6_0" departPos="2.30" departSpeed="0.00" departDelay="0.00" arrival="86.00" arrivalLane="691143808#6_0" arrivalPos="25.12" arrivalSpeed="13.87" duration="3.00" routeLength="22.82" waitingTime="0.00" waitingCount="0" stopTime="0.00" timeLoss="0.89" rerouteNo="1" devices="tripinfo_motorcycle36 routing_motorcycle36" vType="motorcycle_motorcycle" speedFactor="1.03" vaporized=""/>
    <tripinfo id="motorcycle28" depart="65.00" departLane="23989757#2_0" departPos="2.30" departSpeed="0.00" departDelay="0.44" arrival="89.00" arrivalLane="-26540252#1_0" arrivalPos="53.58" arrivalSpeed="25.38" duration="24.00" routeLength="481.00" waitingTime="0.00" waitingCount="0" stopTime="0.00" timeLoss="5.65" rerouteNo="1" devices="tripinfo_motorcycle28 routing_motorcycle28" vType="motorcycle_motorcycle" speedFactor="1.01" vaporized=""/>
    <tripinfo id="motorcycle1" depart="3.00" departLane="23979402#2_0" departPos="2.30" departSpeed="0.00" departDelay="0.69" arrival="97.00" arrivalLane="385200732#0_0" arrivalPos="76.77" arrivalSpeed="18.46" duration="94.00" routeLength="1133.42" waitingTime="9.00" waitingCount="2" stopTime="0.00" timeLoss="27.58" rerouteNo="1" devices="tripinfo_motorcycle1 routing_motorcycle1" vType="motorcycle_motorcycle" speedFactor="0.94" vaporized=""/>
    <tripinfo id="veh39" depart="12.00" departLane="228464700#2_3" departPos="5.10" departSpeed="0.00" departDelay="0.00" arrival="103.00" arrivalLane="-314480719#8_0" arrivalPos="61.89" arrivalSpeed="21.96" duration="91.00" routeLength="445.06" waitingTime="53.00" waitingCount="1" stopTime="0.00" timeLoss="69.39" rerouteNo="1" devices="tripinfo_veh39 routing_veh39" vType="veh_passenger" speedFactor="1.01" vaporized=""/>
    <tripinfo id="veh5" depart="2.00" departLane="925185053_1" departPos="5.10" departSpeed="0.00" departDelay="0.46" arrival="108.00" arrivalLane="257692772#1_0" arrivalPos="78.59" arrivalSpeed="18.51" duration="106.00" routeLength="1038.69" waitingTime="24.00" waitingCount="1" stopTime="0.00" timeLoss="52.31" rerouteNo="1" devices="tripinfo_veh5 routing_veh5" vType="veh_passenger" speedFactor="1.06" vaporized=""/>
    <tripinfo id="motorcycle3" depart="7.00" departLane="1424834371#0_0" departPos="2.30" departSpeed="0.00" departDelay="0.08" arrival="114.00" arrivalLane="288039682#0_0" arrivalPos="0.63" arrivalSpeed="7.49" duration="107.00" routeLength="1155.61" waitingTime="6.00" waitingCount="2" stopTime="0.00" timeLoss="28.76" rerouteNo="1" devices="tripinfo_motorcycle3 routing_motorcycle3" vType="motorcycle_motorcycle" speedFactor="0.89" vaporized=""/>
    <tripinfo id="motorcycle41" depart="95.00" departLane="-691145130#2_1" departPos="2.30" departSpeed="0.00" departDelay="0.47" arrival="114.00" arrivalLane="691145130#2_1" arrivalPos="81.31" arrivalSpeed="28.60" duration="19.00" routeLength="280.25" waitingTime="0.00" waitingCount="0" stopTime="0.00" timeLoss="8.66" rerouteNo="1" devices="tripinfo_motorcycle41 routing_motorcycle41" vType="motorcycle_motorcycle" speedFactor="1.09" vaporized=""/>
    <tripinfo id="motorcycle15" depart="35.00" departLane="1409740304#3_1" departPos="2.30" departSpeed="0.00" departDelay="0.42" arrival="116.00" arrivalLane="186752465#0_0" arrivalPos="32.59" arrivalSpeed="14.43" duration="81.00" routeLength="761.51" waitingTime="22.00" waitingCount="2" stopTime="0.00" timeLoss="39.36" rerouteNo="1" devices="tripinfo_motorcycle15 routing_motorcycle15" vType="motorcycle_motorcycle" speedFactor="1.16" vaporized=""/>
    <tripinfo id="bus14" depart="17.00" departLane="-911222968#0_2" departPos="12.10" departSpeed="0.00" departDelay="0.94" arrival="122.00" arrivalLane="1446517203#1_0" arrivalPos="25.40" arrivalSpeed="25.56" duration="105.00" routeLength="1034.19" waitingTime="8.00" waitingCount="2" stopTime="0.00" timeLoss="66.25" rerouteNo="1" devices="tripinfo_bus14 routing_bus14" vType="bus_bus" speedFactor="1.00" vaporized=""/>
    <tripinfo id="bus0" depart="0.00" departLane="-401358083#7_0" departPos="1.25" departSpeed="0.00" departDelay="0.00" arrival="125.00" arrivalLane="-288039682#12_0" arrivalPos="1.45" arrivalSpeed="6.37" duration="125.00" routeLength="1003.74" waitingTime="22.00" waitingCount="3" stopTime="0.00" timeLoss="83.50" rerouteNo="1" devices="tripinfo_bus0 routing_bus0" vType="bus_bus" speedFactor="1.00" vaporized=""/>
    <tripinfo id="veh198" depart="61.00" departLane="-605261126#3_1" departPos="5.10" departSpeed="0.00" departDelay="0.08" arrival="130.00" arrivalLane="-1211482741#2_2" arrivalPos="3.14" arrivalSpeed="30.20" duration="69.00" routeLength="1125.88" waitingTime="3.00" waitingCount="1" stopTime="0.00" timeLoss="29.82" rerouteNo="1" devices="tripinfo_veh198 routing_veh198" vType="veh_passenger" speedFactor="1.10" vaporized=""/>
    <tripinfo id="motorcycle7" depart="17.00" departLane="-175953575#2_0" departPos="2.30" departSpeed="0.00" departDelay="0.86" arrival="133.00" arrivalLane="1386573578#1_0" arrivalPos="26.67" arrivalSpeed="21.48" duration="116.00" routeLength="1486.71" waitingTime="20.00" waitingCount="1" stopTime="0.00" timeLoss="38.74" rerouteNo="1" devices="tripinfo_motorcycle7 routing_motorcycle7" vType="motorcycle_motorcycle" speedFactor="1.03" vaporized=""/>
    <tripinfo id="motorcycle9" depart="21.00" departLane="-1414763098#5_0" departPos="2.30" departSpeed="0.00" departDelay="0.25" arrival="133.00" arrivalLane="-208514985#10_0" arrivalPos="68.44" arrivalSpeed="15.49" duration="112.00" routeLength="1650.99" waitingTime="17.00" waitingCount="1" stopTime="0.00" timeLoss="37.48" rerouteNo="1" devices="tripinfo_motorcycle9 routing_motorcycle9" vType="motorcycle_motorcycle" speedFactor="1.12" vaporized=""/>
    <tripinfo id="motorcycle42" depart="97.00" departLane="-920731517#1_0" departPos="2.30" departSpeed="0.00" departDelay="0.16" arrival="133.00" arrivalLane="785750009#9_0" arrivalPos="18.72" arrivalSpeed="14.67" duration="36.00" routeLength="155.90" waitingTime="18.00" waitingCount="1" stopTime="0.00" timeLoss="26.60" rerouteNo="1" devices="tripinfo_motorcycle42 routing_motorcycle42" vType="motorcycle_motorcycle" speedFactor="1.00" vaporized=""/>
    <tripinfo id="veh48" depart="15.00" departLane="-1409740305#0_1" departPos="5.10" departSpeed="0.00" departDelay="0.23" arrival="134.00" arrivalLane="-690187845_0" arrivalPos="18.13" arrivalSpeed="13.90" duration="119.00" routeLength="1101.01" waitingTime="20.00" waitingCount="2" stopTime="0.00" timeLoss="47.16" rerouteNo="1" devices="tripinfo_veh48 routing_veh48" vType="veh_passenger" speedFactor="1.00" vaporized=""/>
    <tripinfo id="motorcycle0" depart="0.00" departLane="-125617974_1" departPos="2.30" departSpeed="0.00" departDelay="0.00" arrival="135.00" arrivalLane="24041010#2_0" arrivalPos="142.52" arrivalSpeed="13.02" duration="135.00" routeLength="2256.68" waitingTime="17.00" waitingCount="1" stopTime="0.00" timeLoss="38.25" rerouteNo="1" devices="tripinfo_motorcycle0 routing_motorcycle0" vType="motorcycle_motorcycle" speedFactor="1.06" vaporized=""/>
    <tripinfo id="motorcycle10" depart="24.00" departLane="-24041344#11_0" departPos="2.30" departSpeed="0.00" departDelay="0.94" arrival="138.00" arrivalLane="-24040748#6_0" arrivalPos="38.60" arrivalSpeed="11.37" duration="114.00" routeLength="1066.75" waitingTime="37.00" waitingCount="3" stopTime="0.00" timeLoss="59.95" rerouteNo="1" devices="tripinfo_motorcycle10 routing_motorcycle10" vType="motorcycle_motorcycle" speedFactor="0.99" vaporized=""/>
    <tripinfo id="veh79" depart="25.00" departLane="-1222741585_0" departPos="5.10" departSpeed="0.00" departDelay="0.69" arrival="138.00" arrivalLane="-1409740311_2" arrivalPos="28.27" arrivalSpeed="14.56" duration="113.00" routeLength="1022.33" waitingTime="38.00" waitingCount="2" stopTime="0.00" timeLoss="61.85" rerouteNo="1" devices="tripinfo_veh79 routing_veh79" vType="veh_passenger" speedFactor="0.94" vaporized=""/>
    <tripinfo id="motorcycle44" depart="102.00" departLane="-208907445#3_0" departPos="1.34" departSpeed="0.00" departDelay="0.55" arrival="145.00" arrivalLane="691145129#0_0" arrivalPos="20.54" arrivalSpeed="12.29" duration="43.00" routeLength="491.77" waitingTime="0.00" waitingCount="0" stopTime="0.00" timeLoss="8.36" rerouteNo="1" devices="tripinfo_motorcycle44 routing_motorcycle44" vType="motorcycle_motorcycle" speedFactor="0.88" vaporized=""/>
    <tripinfo id="motorcycle4" depart="10.00" departLane="-925185053_1" departPos="2.30" departSpeed="0.00" departDelay="0.78" arrival="147.00" arrivalLane="-1320158852#3_0" arrivalPos="10.34" arrivalSpeed="15.54" duration="137.00" routeLength="1667.82" waitingTime="21.00" waitingCount="3" stopTime="0.00" timeLoss="45.60" rerouteNo="1" devices="tripinfo_motorcycle4 routing_motorcycle4" vType="motorcycle_motorcycle" speedFactor="0.94" vaporized=""/>
    <tripinfo id="motorcycle17" depart="40.00" departLane="1304966308#1_0" departPos="2.30" departSpeed="0.00" departDelay="0.80" arrival="148.00" arrivalLane="-605261126#23_1" arrivalPos="76.63" arrivalSpeed="25.42" duration="108.00" routeLength="1105.88" waitingTime="39.00" waitingCount="1" stopTime="0.00" timeLoss="61.41" rerouteNo="1" devices="tripinfo_motorcycle17 routing_motorcycle17" vType="motorcycle_motorcycle" speedFactor="1.01" vaporized=""/>
    <tripinfo id="veh112" depart="35.00" departLane="1222882872#0_1" departPos="5.10" departSpeed="0.00" departDelay="0.54" arrival="151.00" arrivalLane="-245951650#4_0" arrivalPos="93.61" arrivalSpeed="13.71" duration="116.00" routeLength="1477.17" waitingTime="9.00" waitingCount="3" stopTime="0.00" timeLoss="44.47" rerouteNo="1" devices="tripinfo_veh112 routing_veh112" vType="veh_passenger" speedFactor="1.03" vaporized=""/>
    <tripinfo id="veh37" depart="12.00" departLane="-691145129#1_0" departPos="5.10" departSpeed="0.00" departDelay="0.62" arrival="156.00" arrivalLane="-1180570087_0" arrivalPos="105.88" arrivalSpeed="11.31" duration="144.00" routeLength="1559.58" waitingTime="14.00" waitingCount="2" stopTime="0.00" timeLoss="43.00" rerouteNo="1" devices="tripinfo_veh37 routing_veh37" vType="veh_passenger" speedFactor="0.82" vaporized=""/>
    <tripinfo id="veh65" depart="20.00" departLane="912368453#12_3" departPos="5.10" departSpeed="0.00" departDelay="0.00" arrival="157.00" arrivalLane="30992560#3_0" arrivalPos="11.57" arrivalSpeed="24.57" duration="137.00" routeLength="2166.31" waitingTime="11.00" waitingCount="1" stopTime="0.00" timeLoss="45.72" rerouteNo="1" devices="tripinfo_veh65 routing_veh65" vType="veh_passenger" speedFactor="1.12" vaporized=""/>
    <tripinfo id="veh218" depart="68.00" departLane="1334817300#2_1" departPos="5.10" departSpeed="0.00" departDelay="0.92" arrival="165.00" arrivalLane="208518325#9_0" arrivalPos="56.43" arrivalSpeed="9.93" duration="97.00" routeLength="711.74" waitingTime="23.00" waitingCount="2" stopTime="0.00" timeLoss="50.38" rerouteNo="1" devices="tripinfo_veh218 routing_veh218" vType="veh_passenger" speedFactor="0.99" vaporized=""/>
    <tripinfo id="veh245" depart="76.00" departLane="42682320#0_1" departPos="5.10" departSpeed="0.00" departDelay="0.61" arrival="166.00" arrivalLane="30811921#1_2" arrivalPos="36.16" arrivalSpeed="14.61" duration="90.00" routeLength="975.21" waitingTime="5.00" waitingCount="2" stopTime="0.00" timeLoss="27.70" rerouteNo="1" devices="tripinfo_veh245 routing_veh245" vType="veh_passenger" speedFactor="0.89" vaporized=""/>
    <tripinfo id="motorcycle29" depart="67.00" departLane="-691145133#3_0" departPos="2.30" departSpeed="0.00" departDelay="0.14" arrival="167.00" arrivalLane="171895222#1_2" arrivalPos="179.98" arrivalSpeed="29.73" duration="100.00" routeLength="1026.51" waitingTime="26.00" waitingCount="3" stopTime="0.00" timeLoss="52.52" rerouteNo="1" devices="tripinfo_motorcycle29 routing_motorcycle29" vType="motorcycle_motorcycle" speedFactor="1.17" vaporized=""/>
    <tripinfo id="veh76" depart="24.00" departLane="-925193171#1_1" departPos="5.10" departSpeed="0.00" departDelay="0.61" arrival="167.00" arrivalLane="214215470#0_1" arrivalPos="13.82" arrivalSpeed="16.15" duration="143.00" routeLength="1094.40" waitingTime="59.00" waitingCount="2" stopTime="0.00" timeLoss="101.01" rerouteNo="1" devices="tripinfo_veh76 routing_veh76" vType="veh_passenger" speedFactor="1.00" vaporized=""/>
    <tripinfo id="veh90" depart="28.00" departLane="401358083#17_1" departPos="5.10" departSpeed="0.00" departDelay="0.31" arrival="167.00" arrivalLane="257692765#1_1" arrivalPos="62.01" arrivalSpeed="18.16" duration="139.00" routeLength="1523.97" waitingTime="32.00" waitingCount="2" stopTime="0.00" timeLoss="82.34" rerouteNo="1" devices="tripinfo_veh90 routing_veh90" vType="veh_passenger" speedFactor="1.10" vaporized=""/>
    <tripinfo id="truck10" depart="31.00" departLane="26902000#12_0" departPos="7.20" departSpeed="0.00" departDelay="0.23" arrival="167.00" arrivalLane="1431718357_2" arrivalPos="7.75" arrivalSpeed="8.28" duration="136.00" routeLength="1147.20" waitingTime="23.00" waitingCount="2" stopTime="0.00" timeLoss="74.50" rerouteNo="1" devices="tripinfo_truck10 routing_truck10" vType="truck_truck" speedFactor="1.03" vaporized=""/>
    <tripinfo id="motorcycle31" depart="72.00" departLane="208907445#0_0" departPos="1.52" departSpeed="0.00" departDelay="0.53" arrival="169.00" arrivalLane="-691145131#10_0" arrivalPos="38.44" arrivalSpeed="12.26" duration="97.00" routeLength="1311.13" waitingTime="10.00" waitingCount="1" stopTime="0.00" timeLoss="27.94" rerouteNo="1" devices="tripinfo_motorcycle31 routing_motorcycle31" vType="motorcycle_motorcycle" speedFactor="1.02" vaporized=""/>
    <tripinfo id="veh78" depart="24.00" departLane="40755923#9_3" departPos="5.10" departSpeed="0.00" departDelay="0.00" arrival="170.00" arrivalLane="-208514985#5_0" arrivalPos="98.19" arrivalSpeed="12.86" duration="146.00" routeLength="1663.15" waitingTime="26.00" waitingCount="2" stopTime="0.00" timeLoss="62.94" rerouteNo="1" devices="tripinfo_veh78 routing_veh78" vType="veh_passenger" speedFactor="0.98" vaporized=""/>
    <tripinfo id="veh109" depart="34.00" departLane="911115667#3_1" departPos="5.10" departSpeed="0.00" departDelay="0.46" arrival="170.00" arrivalLane="-258025940#0_0" arrivalPos="12.71" arrivalSpeed="9.08" duration="136.00" routeLength="1245.12" waitingTime="24.00" waitingCount="3" stopTime="0.00" timeLoss="58.96" rerouteNo="1" devices="tripinfo_veh109 routing_veh109" vType="veh_passenger" speedFactor="0.83" vaporized=""/>
    <tripinfo id="motorcycle39" depart="90.00" departLane="-690187867#2_0" departPos="2.30" departSpeed="0.00" departDelay="0.08" arrival="171.00" arrivalLane="1370006053#2_0" arrivalPos="21.32" arrivalSpeed="12.75" duration="81.00" routeLength="956.49" waitingTime="2.00" waitingCount="1" stopTime="0.00" timeLoss="19.32" rerouteNo="1" devices="tripinfo_motorcycle39 routing_motorcycle39" vType="motorcycle_motorcycle" speedFactor="1.04" vaporized=""/>
    <tripinfo id="veh168" depart="52.00" departLane="228767959#3_1" departPos="5.10" departSpeed="0.00" departDelay="0.31" arrival="171.00" arrivalLane="693651833#7_0" arrivalPos="24.24" arrivalSpeed="22.18" duration="119.00" routeLength="1216.34" waitingTime="21.00" waitingCount="2" stopTime="0.00" timeLoss="62.52" rerouteNo="1" devices="tripinfo_veh168 routing_veh168" vType="veh_passenger" speedFactor="1.01" vaporized=""/>
    <tripinfo id="veh169" depart="52.00" departLane="1185785532#4_3" departPos="5.10" departSpeed="0.00" departDelay="0.00" arrival="171.00" arrivalLane="912357111#1_0" arrivalPos="52.44" arrivalSpeed="16.53" duration="119.00" routeLength="1202.44" waitingTime="20.00" waitingCount="3" stopTime="0.00" timeLoss="51.51" rerouteNo="1" devices="tripinfo_veh169 routing_veh169" vType="veh_passenger" speedFactor="0.84" vaporized=""/>
    <tripinfo id="veh171" depart="53.00" departLane="1409740303#1_0" departPos="5.10" departSpeed="0.00" departDelay="0.38" arrival="172.00" arrivalLane="23650459#3_0" arrivalPos="67.21" arrivalSpeed="23.97" duration="119.00" routeLength="1337.30" waitingTime="23.00" waitingCount="3" stopTime="0.00" timeLoss="62.16" rerouteNo="1" devices="tripinfo_veh171 routing_veh171" vType="veh_passenger" speedFactor="1.13" vaporized=""/>
    <tripinfo id="motorcycle22" depart="51.00" departLane="-24041344#1_0" departPos="2.30" departSpeed="0.00" departDelay="0.28" arrival="173.00" arrivalLane="22576030#12_0" arrivalPos="76.37" arrivalSpeed="8.02" duration="122.00" routeLength="1008.00" waitingTime="38.00" waitingCount="3" stopTime="0.00" timeLoss="70.46" rerouteNo="1" devices="tripinfo_motorcycle22 routing_motorcycle22" vType="motorcycle_motorcycle" speedFactor="0.92" vaporized=""/>
    <tripinfo id="truck12" depart="37.00" departLane="-40941250#5_1" departPos="7.20" departSpeed="0.00" departDelay="0.08" arrival="173.00" arrivalLane="-1450165106#7_1" arrivalPos="56.53" arrivalSpeed="13.72" duration="136.00" routeLength="1547.74" waitingTime="16.00" waitingCount="1" stopTime="0.00" timeLoss="60.17" rerouteNo="1" devices="tripinfo_truck12 routing_truck12" vType="truck_truck" speedFactor="1.02" vaporized=""/>
    <tripinfo id="motorcycle19" depart="44.00" departLane="349962357#3_0" departPos="1.80" departSpeed="0.00" departDelay="0.19" arrival="174.00" arrivalLane="-27083101#1_0" arrivalPos="19.53" arrivalSpeed="9.40" duration="130.00" routeLength="1082.85" waitingTime="28.00" waitingCount="2" stopTime="0.00" timeLoss="54.57" rerouteNo="1" devices="tripinfo_motorcycle19 routing_motorcycle19" vType="motorcycle_motorcycle" speedFactor="0.89" vaporized=""/>
    <tripinfo id="bus29" depart="34.00" departLane="487759852#29_1" departPos="12.10" departSpeed="0.00" departDelay="0.73" arrival="179.00" arrivalLane="334057433#3_0" arrivalPos="35.80" arrivalSpeed="13.65" duration="145.00" routeLength="1119.14" waitingTime="38.00" waitingCount="3" stopTime="0.00" timeLoss="91.87" rerouteNo="1" devices="tripinfo_bus29 routing_bus29" vType="bus_bus" speedFactor="1.00" vaporized=""/>
    <tripinfo id="veh114" depart="36.00" departLane="1427251608#0_1" departPos="5.10" departSpeed="0.00" departDelay="0.92" arrival="179.00" arrivalLane="1211482741#1_2" arrivalPos="109.35" arrivalSpeed="20.22" duration="143.00" routeLength="1810.54" waitingTime="39.00" waitingCount="2" stopTime="0.00" timeLoss="80.90" rerouteNo="1" devices="tripinfo_veh114 routing_veh114" vType="veh_passenger" speedFactor="1.07" vaporized=""/>
    <tripinfo id="motorcycle2" depart="5.00" departLane="-1222741583#29_0" departPos="2.30" departSpeed="0.00" departDelay="0.39" arrival="181.00" arrivalLane="1222882871#2_0" arrivalPos="83.38" arrivalSpeed="14.39" duration="176.00" routeLength="1677.42" waitingTime="54.00" waitingCount="4" stopTime="0.00" timeLoss="88.69" rerouteNo="1" devices="tripinfo_motorcycle2 routing_motorcycle2" vType="motorcycle_motorcycle" speedFactor="1.05" vaporized=""/>
    <tripinfo id="motorcycle37" depart="86.00" departLane="460408961#1_0" departPos="2.30" departSpeed="0.00" departDelay="0.69" arrival="181.00" arrivalLane="124841587#1_1" arrivalPos="197.98" arrivalSpeed="19.92" duration="95.00" routeLength="579.29" waitingTime="49.00" waitingCount="1" stopTime="0.00" timeLoss="63.13" rerouteNo="1" devices="tripinfo_motorcycle37 routing_motorcycle37" vType="motorcycle_motorcycle" speedFactor="0.96" vaporized=""/>
    <tripinfo id="veh67" depart="21.00" departLane="-401358083#5_1" departPos="5.10" departSpeed="0.00" departDelay="0.38" arrival="181.00" arrivalLane="257692765#6_0" arrivalPos="72.47" arrivalSpeed="28.74" duration="160.00" routeLength="2011.54" waitingTime="37.00" waitingCount="2" stopTime="0.00" timeLoss="84.62" rerouteNo="1" devices="tripinfo_veh67 routing_veh67" vType="veh_passenger" speedFactor="1.08" vaporized=""/>
    <tripinfo id="motorcycle12" depart="28.00" departLane="1424832066#5_1" departPos="2.30" departSpeed="0.00" departDelay="0.33" arrival="183.00" arrivalLane="208518325#18_0" arrivalPos="27.25" arrivalSpeed="9.33" duration="155.00" routeLength="1602.26" waitingTime="28.00" waitingCount="3" stopTime="0.00" timeLoss="57.66" rerouteNo="1" devices="tripinfo_motorcycle12 routing_motorcycle12" vType="motorcycle_motorcycle" speedFactor="0.88" vaporized=""/>
    <tripinfo id="veh47" depart="15.00" departLane="1446864466#5_0" departPos="5.10" departSpeed="0.00" departDelay="0.54" arrival="184.00" arrivalLane="911220277#1_0" arrivalPos="23.07" arrivalSpeed="10.53" duration="169.00" routeLength="1084.62" waitingTime="24.00" waitingCount="2" stopTime="0.00" timeLoss="48.81" rerouteNo="1" devices="tripinfo_veh47 routing_veh47" vType="veh_passenger" speedFactor="1.02" vaporized=""/>
    <tripinfo id="motorcycle16" depart="37.00" departLane="-27083100#4_0" departPos="2.30" departSpeed="0.00" departDelay="0.11" arrival="185.00" arrivalLane="693651833#13_0" arrivalPos="20.13" arrivalSpeed="22.04" duration="148.00" routeLength="1610.45" waitingTime="31.00" waitingCount="4" stopTime="0.00" timeLoss="75.28" rerouteNo="1" devices="tripinfo_motorcycle16 routing_motorcycle16" vType="motorcycle_motorcycle" speedFactor="1.02" vaporized=""/>
    <tripinfo id="motorcycle34" depart="79.00" departLane="24041003#1_0" departPos="2.30" departSpeed="0.00" departDelay="0.61" arrival="185.00" arrivalLane="-208520936#3_0" arrivalPos="78.05" arrivalSpeed="23.77" duration="106.00" routeLength="996.02" waitingTime="38.00" waitingCount="2" stopTime="0.00" timeLoss="54.98" rerouteNo="1" devices="tripinfo_motorcycle34 routing_motorcycle34" vType="motorcycle_motorcycle" speedFactor="1.10" vaporized=""/>
    <tripinfo id="motorcycle27" depart="63.00" departLane="-175953577#3_0" departPos="2.30" departSpeed="0.00" departDelay="0.75" arrival="186.00" arrivalLane="1222882871#3_0" arrivalPos="19.65" arrivalSpeed="13.22" duration="123.00" routeLength="1441.03" waitingTime="22.00" waitingCount="2" stopTime="0.00" timeLoss="51.30" rerouteNo="1" devices="tripinfo_motorcycle27 routing_motorcycle27" vType="motorcycle_motorcycle" speedFactor="1.15" vaporized=""/>
    <tripinfo id="veh115" depart="36.00" departLane="912368453#13_0" departPos="5.10" departSpeed="0.00" departDelay="0.61" arrival="188.00" arrivalLane="-1342321805_2" arrivalPos="0.20" arrivalSpeed="22.21" duration="152.00" routeLength="1537.19" waitingTime="44.00" waitingCount="2" stopTime="0.00" timeLoss="92.10" rerouteNo="1" devices="tripinfo_veh115 routing_veh115" vType="veh_passenger" speedFactor="1.02" vaporized=""/>
    <tripinfo id="bus58" depart="67.00" departLane="655430041#2_0" departPos="12.10" departSpeed="0.00" departDelay="0.47" arrival="189.00" arrivalLane="467058778#9_0" arrivalPos="14.38" arrivalSpeed="8.57" duration="122.00" routeLength="962.30" waitingTime="19.00" waitingCount="3" stopTime="0.00" timeLoss="71.72" rerouteNo="1" devices="tripinfo_bus58 routing_bus58" vType="bus_bus" speedFactor="1.00" vaporized=""/>
    <tripinfo id="motorcycle54" depart="125.00" departLane="208514980#2_0" departPos="2.30" departSpeed="0.00" departDelay="0.50" arrival="189.00" arrivalLane="912358838#5_0" arrivalPos="57.20" arrivalSpeed="21.03" duration="64.00" routeLength="668.23" waitingTime="20.00" waitingCount="2" stopTime="0.00" timeLoss="33.84" rerouteNo="1" devices="tripinfo_motorcycle54 routing_motorcycle54" vType="motorcycle_motorcycle" speedFactor="1.02" vaporized=""/>
    <tripinfo id="veh190" depart="59.00" departLane="615947439#0_1" departPos="5.10" departSpeed="0.00" departDelay="0.54" arrival="190.00" arrivalLane="-911108694#0_1" arrivalPos="51.25" arrivalSpeed="10.08" duration="131.00" routeLength="1371.31" waitingTime="19.00" waitingCount="2" stopTime="0.00" timeLoss="44.92" rerouteNo="1" devices="tripinfo_veh190 routing_veh190" vType="veh_passenger" speedFactor="0.99" vaporized=""/>
    <tripinfo id="veh284" depart="88.00" departLane="1374191444#5_0" departPos="5.10" departSpeed="0.00" departDelay="0.61" arrival="190.00" arrivalLane="548024820#1_1" arrivalPos="78.69" arrivalSpeed="25.28" duration="102.00" routeLength="1886.37" waitingTime="0.00" waitingCount="0" stopTime="0.00" timeLoss="19.58" rerouteNo="1" devices="tripinfo_veh284 routing_veh284" vType="veh_passenger" speedFactor="0.93" vaporized=""/>
    <tripinfo id="veh250" depart="77.00" departLane="-1222163960#0_0" departPos="5.10" departSpeed="0.00" departDelay="0.07" arrival="192.00" arrivalLane="-911230140#0_1" arrivalPos="41.20" arrivalSpeed="30.35" duration="115.00" routeLength="1521.06" waitingTime="24.00" waitingCount="1" stopTime="0.00" timeLoss="58.47" rerouteNo="1" devices="tripinfo_veh250 routing_veh250" vType="veh_passenger" speedFactor="1.11" vaporized=""/>
    <tripinfo id="veh414" depart="128.00" departLane="-228464702#5_0" departPos="5.10" departSpeed="0.00" departDelay="0.61" arrival="192.00" arrivalLane="691218156#4_0" arrivalPos="37.14" arrivalSpeed="12.26" duration="64.00" routeLength="757.28" waitingTime="7.00" waitingCount="2" stopTime="0.00" timeLoss="33.32" rerouteNo="1" devices="tripinfo_veh414 routing_veh414" vType="veh_passenger" speedFactor="1.11" vaporized=""/>
    <tripinfo id="bus60" depart="69.00" departLane="652090756#3_0" departPos="12.10" departSpeed="0.00" departDelay="0.17" arrival="193.00" arrivalLane="87741571#4_0" arrivalPos="20.23" arrivalSpeed="13.40" duration="124.00" routeLength="1358.73" waitingTime="5.00" waitingCount="1" stopTime="0.00" timeLoss="57.65" rerouteNo="1" devices="tripinfo_bus60 routing_bus60" vType="bus_bus" speedFactor="1.00" vaporized=""/>