<?xml version="1.0" encoding="UTF-8"?>

<!-- generated on 2025-11-22 23:01:17 by Eclipse SUMO sumo Version 1.24.0
<sumoConfiguration xmlns:xsi="http://www.w3.org/2001/XMLSchema-instance" xsi:noNamespaceSchemaLocation="http://sumo.dlr.de/xsd/sumoConfiguration.xsd">

    <input>
        <net-file value="data/osm.net.xml.gz"/>
        <route-files value="data/osm_pt.rou.xml,data/osm.bus.trips.xml,data/osm.motorcycle.trips.xml,data/osm.passenger.trips.xml,data/osm.truck.trips.xml"/>
        <additional-files value="data/osm.poly.xml.gz,data/osm_stops.add.xml,data/output.add.xml,data/edge_output.add.xml"/>
    </input>

    <output>
        <tripinfo-output value="/home/yarl/Desktop/git/Urban/baseline/tripinfos.xml"/>
        <vehroute-output value="/home/yarl/Desktop/git/Urban/baseline/vehroute.xml"/>
        <stop-output value="/home/yarl/Desktop/git/Urban/baseline/stopinfos.xml"/>
        <statistic-output value="/home/yarl/Desktop/git/Urban/baseline/stats.xml"/>
    </output>

    <processing>
        <ignore-route-errors value="true"/>
        <tls.actuated.jam-threshold value="30"/>
    </processing>

    <routing>
        <device.rerouting.adaptation-steps value="18"/>
        <device.rerouting.adaptation-interval value="10"/>
    </routing>

    <report>
        <verbose value="true"/>
        <duration-log.statistics value="true"/>
        <no-step-log value="true"/>
    </report>

    <traci_server>
        <remote-port value="45091"/>
    </traci_server>

    <gui_only>
        <gui-settings-file value="data/osm.view.xml"/>
    </gui_only>

</sumoConfiguration>
-->

<meandata xmlns:xsi="http://www.w3.org/2001/XMLSchema-instance" xsi:noNamespaceSchemaLocation="http://sumo.dlr.de/xsd/meandata_file.xsd">
</meandata>
